
FAST Summary File

Predictions were generated on 10-Jul-2023 at 11:49:27 using OpenFAST, compiled as a 64-bit application using double precision at commit -128-NOTFOUND
  compiled with
    NWTC Subroutine Library
    ElastoDyn
    BeamDyn
    InflowWind (unknown version, unknown date) [not called]
    AeroDyn14 (unknown version, unknown date) [not called]
    AeroDyn
    ServoDyn (unknown version, unknown date) [not called]
    HydroDyn (unknown version, unknown date) [not called]
    SubDyn (unknown version, unknown date) [not called]
    ExtPtfm_MCKF (unknown version, unknown date) [not called]
    MAP (unknown version, unknown date) [not called]
    FEAMooring (unknown version, unknown date) [not called]
    MoorDyn (unknown version, unknown date) [not called]
    OrcaFlexInterface (unknown version, unknown date) [not called]
    IceFloe (unknown version, unknown date) [not called]
    IceDyn (unknown version, unknown date) [not called]


Modeling a land-based turbine
Description from the FAST input file: 
  FAST Certification Test #26: NREL 5.0 MW Baseline Wind Turbine (Onshore)

Interpolation order for input/output time histories: 2 (quadratic)
Number of correction iterations:  0
Number of rows in Jacobian matrix used for coupling ElastoDyn, SubDyn, HydroDyn, OrcaFlex, ExtPtfm_MCKF, and/or BeamDyn:     24


   Requested Time Steps  
  -------------------------------------------------
  Component          Time Step (s)    Subcycles (-)
  -----------------  ---------------  -------------
  FAST (glue code)    4.304E-04
  ElastoDyn           4.304E-04              1
  BeamDyn             4.304E-04              1
  AeroDyn             4.304E-04              1
  ExtLoads            4.304E-04              1
  FAST output files   3.444E-03              8^-1


   Requested Channels in FAST Output File(s)  
  --------------------------------------------
  Number  Name                  Units                 Generated by
  ------  --------------------  --------------------  ------------
       1  Time                  (s)                   OpenFAST
       2  Azimuth               (deg)                 ElastoDyn
       3  BldPitch1             (deg)                 ElastoDyn
       4  RotSpeed              (rpm)                 ElastoDyn
       5  GenSpeed              (rpm)                 ElastoDyn
       6  TTDspFA               (m)                   ElastoDyn
       7  TTDspSS               (m)                   ElastoDyn
       8  TTDspTwst             (deg)                 ElastoDyn
       9  RotTorq               (kN-m)                ElastoDyn
      10  LSSGagMya             (kN-m)                ElastoDyn
      11  LSSGagMza             (kN-m)                ElastoDyn
      12  YawBrFxp              (kN)                  ElastoDyn
      13  YawBrFyp              (kN)                  ElastoDyn
      14  YawBrFzp              (kN)                  ElastoDyn
      15  YawBrMxp              (kN-m)                ElastoDyn
      16  YawBrMyp              (kN-m)                ElastoDyn
      17  YawBrMzp              (kN-m)                ElastoDyn
      18  TwrBsFxt              (kN)                  ElastoDyn
      19  TwrBsFyt              (kN)                  ElastoDyn
      20  TwrBsFzt              (kN)                  ElastoDyn
      21  TwrBsMxt              (kN-m)                ElastoDyn
      22  TwrBsMyt              (kN-m)                ElastoDyn
      23  TwrBsMzt              (kN-m)                ElastoDyn
      24  RootFxb1              INVALID               ElastoDyn
      25  RootFxb2              INVALID               ElastoDyn
      26  RootFxb3              INVALID               ElastoDyn
      27  RootFyb1              INVALID               ElastoDyn
      28  RootFyb2              INVALID               ElastoDyn
      29  RootFyb3              INVALID               ElastoDyn
      30  RootFzb1              INVALID               ElastoDyn
      31  RootFzb2              INVALID               ElastoDyn
      32  RootFzb3              INVALID               ElastoDyn
      33  RootMxb1              INVALID               ElastoDyn
      34  RootMxb2              INVALID               ElastoDyn
      35  RootMxb3              INVALID               ElastoDyn
      36  RootMyb1              INVALID               ElastoDyn
      37  RootMyb2              INVALID               ElastoDyn
      38  RootMyb3              INVALID               ElastoDyn
      39  RootMzb1              INVALID               ElastoDyn
      40  RootMzb2              INVALID               ElastoDyn
      41  RootMzb3              INVALID               ElastoDyn
      42  TipDxb1               INVALID               ElastoDyn
      43  TipDxb2               INVALID               ElastoDyn
      44  TipDxb3               INVALID               ElastoDyn
      45  TipDyb1               INVALID               ElastoDyn
      46  TipDyb2               INVALID               ElastoDyn
      47  TipDyb3               INVALID               ElastoDyn
      48  TipDzb1               INVALID               ElastoDyn
      49  TipDzb2               INVALID               ElastoDyn
      50  TipDzb3               INVALID               ElastoDyn
      51  TipALxb1              INVALID               ElastoDyn
      52  TipALxb2              INVALID               ElastoDyn
      53  TipALxb3              INVALID               ElastoDyn
      54  TipALyb1              INVALID               ElastoDyn
      55  TipALyb2              INVALID               ElastoDyn
      56  TipALyb3              INVALID               ElastoDyn
      57  TipALzb1              INVALID               ElastoDyn
      58  TipALzb2              INVALID               ElastoDyn
      59  TipALzb3              INVALID               ElastoDyn
      60  OoPDefl1              INVALID               ElastoDyn
      61  IPDefl1               INVALID               ElastoDyn
      62  TwstDefl1             INVALID               ElastoDyn
      63  B1RootFxr             (N)                   BeamDyn
      64  B1RootFyr             (N)                   BeamDyn
      65  B1RootFzr             (N)                   BeamDyn
      66  B1RootMxr             (N-m)                 BeamDyn
      67  B1RootMyr             (N-m)                 BeamDyn
      68  B1RootMzr             (N-m)                 BeamDyn
      69  B1TipTDxr             (m)                   BeamDyn
      70  B1TipTDyr             (m)                   BeamDyn
      71  B1TipTDzr             (m)                   BeamDyn
      72  B1TipRDxr             (-)                   BeamDyn
      73  B1TipRDyr             (-)                   BeamDyn
      74  B1TipRDzr             (-)                   BeamDyn
      75  B2RootFxr             (N)                   BeamDyn
      76  B2RootFyr             (N)                   BeamDyn
      77  B2RootFzr             (N)                   BeamDyn
      78  B2RootMxr             (N-m)                 BeamDyn
      79  B2RootMyr             (N-m)                 BeamDyn
      80  B2RootMzr             (N-m)                 BeamDyn
      81  B2TipTDxr             (m)                   BeamDyn
      82  B2TipTDyr             (m)                   BeamDyn
      83  B2TipTDzr             (m)                   BeamDyn
      84  B2TipRDxr             (-)                   BeamDyn
      85  B2TipRDyr             (-)                   BeamDyn
      86  B2TipRDzr             (-)                   BeamDyn
      87  B3RootFxr             (N)                   BeamDyn
      88  B3RootFyr             (N)                   BeamDyn
      89  B3RootFzr             (N)                   BeamDyn
      90  B3RootMxr             (N-m)                 BeamDyn
      91  B3RootMyr             (N-m)                 BeamDyn
      92  B3RootMzr             (N-m)                 BeamDyn
      93  B3TipTDxr             (m)                   BeamDyn
      94  B3TipTDyr             (m)                   BeamDyn
      95  B3TipTDzr             (m)                   BeamDyn
      96  B3TipRDxr             (-)                   BeamDyn
      97  B3TipRDyr             (-)                   BeamDyn
      98  B3TipRDzr             (-)                   BeamDyn
      99  RtAeroFxh             (N)                   AeroDyn
     100  RtAeroFyh             (N)                   AeroDyn
     101  RtAeroFzh             (N)                   AeroDyn
     102  RtAeroMxh             (N-m)                 AeroDyn
     103  RtAeroMyh             (N-m)                 AeroDyn
     104  RtAeroMzh             (N-m)                 AeroDyn
     105  RtVAvgxh              (m/s)                 AeroDyn
     106  RtAeroCp              (-)                   AeroDyn
     107  RtTSR                 (-)                   AeroDyn
